
Host: mikoyan

Timers On : Mon Mar 18 13:53:23 2024
Timers Off: Mon Mar 18 13:53:23 2024

Wall Time:        0.09 seconds

                                                       Time (seconds)
Module                                       User      System        Wall        Calls

--------------------------------------------------------------------------------------

**************************************************************************************

Host: mikoyan

Timers On : Mon Mar 18 13:53:40 2024
Timers Off: Mon Mar 18 13:53:40 2024

Wall Time:        0.09 seconds

                                                       Time (seconds)
Module                                       User      System        Wall        Calls

--------------------------------------------------------------------------------------

**************************************************************************************

Host: mikoyan

Timers On : Mon Mar 18 13:55:24 2024
Timers Off: Mon Mar 18 13:55:24 2024

Wall Time:        0.11 seconds

                                                       Time (seconds)
Module                                       User      System        Wall        Calls

--------------------------------------------------------------------------------------

**************************************************************************************

Host: mikoyan

Timers On : Mon Mar 18 13:55:45 2024
Timers Off: Mon Mar 18 13:56:51 2024

Wall Time:       65.79 seconds

                                                       Time (seconds)
Module                                       User      System        Wall        Calls

--------------------------------------------------------------------------------------

**************************************************************************************

Host: mikoyan

Timers On : Mon Mar 18 13:59:02 2024
Timers Off: Mon Mar 18 13:59:03 2024

Wall Time:        0.41 seconds

                                                       Time (seconds)
Module                                       User      System        Wall        Calls

--------------------------------------------------------------------------------------

**************************************************************************************

Host: mikoyan

Timers On : Mon Mar 18 13:59:28 2024
Timers Off: Mon Mar 18 13:59:29 2024

Wall Time:        0.41 seconds

                                                       Time (seconds)
Module                                       User      System        Wall        Calls

--------------------------------------------------------------------------------------

**************************************************************************************

Host: mikoyan

Timers On : Mon Mar 18 13:59:54 2024
Timers Off: Mon Mar 18 13:59:54 2024

Wall Time:        0.41 seconds

                                                       Time (seconds)
Module                                       User      System        Wall        Calls

--------------------------------------------------------------------------------------

**************************************************************************************

Host: mikoyan

Timers On : Mon Mar 18 14:00:18 2024
Timers Off: Mon Mar 18 14:00:19 2024

Wall Time:        0.41 seconds

                                                       Time (seconds)
Module                                       User      System        Wall        Calls

--------------------------------------------------------------------------------------

**************************************************************************************

Host: mikoyan

Timers On : Mon Mar 18 14:00:43 2024
Timers Off: Mon Mar 18 14:00:44 2024

Wall Time:        0.40 seconds

                                                       Time (seconds)
Module                                       User      System        Wall        Calls

--------------------------------------------------------------------------------------

**************************************************************************************

Host: mikoyan

Timers On : Mon Mar 18 14:00:58 2024
Timers Off: Mon Mar 18 14:00:59 2024

Wall Time:        0.41 seconds

                                                       Time (seconds)
Module                                       User      System        Wall        Calls

--------------------------------------------------------------------------------------

**************************************************************************************

Host: mikoyan

Timers On : Mon Mar 18 14:01:12 2024
Timers Off: Mon Mar 18 14:01:13 2024

Wall Time:        0.41 seconds

                                                       Time (seconds)
Module                                       User      System        Wall        Calls

--------------------------------------------------------------------------------------

**************************************************************************************
